{"derived":{"derived":{"currentVault":{"count":2,"lastUpdated":1728637644154}}},"defined":{"defined":{"currentVault":{"count":6,"lastUpdated":1728638401033}}},"particular":{"particular":{"currentVault":{"count":9,"lastUpdated":1728637543294}}},"present":{"present":{"currentVault":{"count":4,"lastUpdated":1728246018115}}},"number":{"number":{"currentVault":{"count":9,"lastUpdated":1728917830362}}},"follows":{"follows":{"currentVault":{"count":7,"lastUpdated":1728918404052}}},"important":{"important":{"currentVault":{"count":3,"lastUpdated":1728478467485}}},"through":{"through":{"currentVault":{"count":3,"lastUpdated":1728408960795}}},"Structure":{"Structure":{"currentVault":{"count":3,"lastUpdated":1728486458436}}},"function":{"function":{"currentVault":{"count":31,"lastUpdated":1728638352333}}},"specific":{"specific":{"currentVault":{"count":5,"lastUpdated":1728488288064}}},"accordingly":{"accordingly":{"currentVault":{"count":2,"lastUpdated":1728410646768}}},"reaching":{"reaching":{"currentVault":{"count":1,"lastUpdated":1728409649939}}},"given":{"given":{"currentVault":{"count":1,"lastUpdated":1728411355918}}},"involves":{"involves":{"currentVault":{"count":2,"lastUpdated":1728493035147}}},"different":{"different":{"currentVault":{"count":9,"lastUpdated":1728575254546}}},"current":{"current":{"currentVault":{"count":1,"lastUpdated":1728479106320}}},"Traverse":{"Traverse":{"currentFile":{"count":3,"lastUpdated":1729272501319}}},"update":{"update":{"currentFile":{"count":3,"lastUpdated":1728410863139}}},"Update":{"Update":{"currentVault":{"count":1,"lastUpdated":1728409918230}}},"complex":{"complex":{"currentVault":{"count":2,"lastUpdated":1728492240946}}},"advanced":{"advanced":{"currentVault":{"count":2,"lastUpdated":1728917553126}}},"traversal":{"traversal":{"currentVault":{"count":6,"lastUpdated":1729272650104}}},"direction":{"direction":{"currentVault":{"count":6,"lastUpdated":1728477988265}}},"previous":{"previous":{"currentVault":{"count":10,"lastUpdated":1728579639522}}},"allows":{"allows":{"currentVault":{"count":1,"lastUpdated":1728409617360}}},"value":{"value":{"currentFile":{"count":4,"lastUpdated":1728478202757}}},"Solution":{"Solution":{"internalLink":{"count":4,"lastUpdated":1728165432926}}},"Algorithm":{"Algorithm":{"currentVault":{"count":4,"lastUpdated":1729272421450}}},"between":{"between":{"currentVault":{"count":14,"lastUpdated":1728813475897}}},"Example":{"Example":{"currentVault":{"count":4,"lastUpdated":1728589871114}}},"Current":{"Current":{"currentFile":{"count":1,"lastUpdated":1728150560236}}},"initialize":{"initialize":{"currentVault":{"count":5,"lastUpdated":1728918837353}}},"three":{"three":{"currentVault":{"count":1,"lastUpdated":1728575338048}}},"problem":{"problem":{"currentVault":{"count":3,"lastUpdated":1728411305904}}},"Initialize":{"Initialize":{"currentVault":{"count":6,"lastUpdated":1728918806830}}},"LinkedList":{"LinkedList":{"internalLink":{"count":3,"lastUpdated":1728155275035}}},"Doubly Linked List":{"Doubly Linked List":{"internalLink":{"count":2,"lastUpdated":1728240636184}}},"determinant":{"determinant":{"currentVault":{"count":2,"lastUpdated":1728152359715}}},"transformation":{"transformation":{"currentVault":{"count":6,"lastUpdated":1728493903372}}},"matrix":{"matrix":{"currentVault":{"count":10,"lastUpdated":1728148815857}}},"calculates":{"calculates":{"currentVault":{"count":4,"lastUpdated":1728919048304}}},"element":{"element":{"currentVault":{"count":8,"lastUpdated":1728494635946}}},"Matrices":{"Matrices":{"internalLink":{"count":16,"lastUpdated":1728583983699}}},"Angular Velocity":{"Angular Velocity":{"internalLink":{"count":4,"lastUpdated":1728584338042}}},"Magnetic Field":{"Magnetic Field":{"internalLink":{"count":6,"lastUpdated":1728584219157}}},"algorithm":{"algorithm":{"currentVault":{"count":7,"lastUpdated":1728918401084}}},"Arduino":{"Arduino":{"internalLink":{"count":7,"lastUpdated":1728128810068}}},"operations":{"operations":{"currentVault":{"count":11,"lastUpdated":1728493161379}}},"actual":{"actual":{"currentVault":{"count":3,"lastUpdated":1728479049182}}},"updating":{"updating":{"currentVault":{"count":4,"lastUpdated":1728479118542}}},"values":{"values":{"currentVault":{"count":5,"lastUpdated":1728477860489}}},"principle":{"principle":{"currentVault":{"count":6,"lastUpdated":1728637726206}}},"commonly":{"commonly":{"currentVault":{"count":3,"lastUpdated":1728579976713}}},"algorithms":{"algorithms":{"currentVault":{"count":11,"lastUpdated":1728478096499}}},"Operations":{"Operations":{"currentVault":{"count":6,"lastUpdated":1728487919779}}},"Application":{"Application":{"currentVault":{"count":3,"lastUpdated":1728154427630}}},"processing":{"processing":{"currentVault":{"count":4,"lastUpdated":1728492166903}}},"Implementation":{"Implementation":{"currentVault":{"count":2,"lastUpdated":1728478709845}}},"implementation":{"implementation":{"currentVault":{"count":8,"lastUpdated":1728641229267}}},"points":{"points":{"currentVault":{"count":3,"lastUpdated":1728918969625}}},"parameter":{"parameter":{"currentVault":{"count":18,"lastUpdated":1728479017501}}},"respectively":{"respectively":{"currentVault":{"count":3,"lastUpdated":1729702565597}}},"connected":{"connected":{"currentVault":{"count":5,"lastUpdated":1728574298765}}},"elements":{"elements":{"currentVault":{"count":14,"lastUpdated":1728494757026}}},"diagonal":{"diagonal":{"currentVault":{"count":4,"lastUpdated":1728494719265}}},"written":{"written":{"currentVault":{"count":3,"lastUpdated":1728148555377}}},"equal":{"equal":{"currentVault":{"count":5,"lastUpdated":1728212088815}}},"called":{"called":{"currentVault":{"count":7,"lastUpdated":1728493181268}}},"columns":{"columns":{"currentVault":{"count":6,"lastUpdated":1728494656211}}},"Square Matrix":{"Square Matrix":{"internalLink":{"count":5,"lastUpdated":1728152269572}}},"Non-Singular":{"Non-Singular":{"currentVault":{"count":2,"lastUpdated":1728148741214}}},"corresponding":{"corresponding":{"currentVault":{"count":4,"lastUpdated":1728919257519}}},"column":{"column":{"currentVault":{"count":2,"lastUpdated":1728493154921}}},"Properties":{"Properties":{"currentVault":{"count":8,"lastUpdated":1728212153136}}},"general":{"general":{"currentVault":{"count":2,"lastUpdated":1728813463281}}},"Matrix":{"Matrix":{"currentFile":{"count":2,"lastUpdated":1728583997261}}},"respect":{"respect":{"currentVault":{"count":3,"lastUpdated":1728409750314}}},"addition":{"addition":{"currentVault":{"count":2,"lastUpdated":1728203461546}}},"elementary":{"elementary":{"currentVault":{"count":2,"lastUpdated":1728493898641}}},"Unit Matrix":{"Identity Matrix":{"internalLink":{"count":3,"lastUpdated":1728148946244}}},"learning":{"learning":{"currentVault":{"count":15,"lastUpdated":1728478463390}}},"predictions":{"predictions":{"currentVault":{"count":4,"lastUpdated":1728637066566}}},"dataset":{"dataset":{"currentVault":{"count":11,"lastUpdated":1728917114341}}},"output":{"output":{"currentVault":{"count":4,"lastUpdated":1728479070077}}},"model":{"model":{"currentVault":{"count":2,"lastUpdated":1728409714972}}},"training":{"training":{"currentVault":{"count":13,"lastUpdated":1728638357866}}},"figure":{"figure":{"currentVault":{"count":2,"lastUpdated":1728477901602}}},"features":{"features":{"currentVault":{"count":23,"lastUpdated":1728918243470}}},"characteristic":{"characteristic":{"currentVault":{"count":4,"lastUpdated":1729696531512}}},"usually":{"usually":{"currentVault":{"count":2,"lastUpdated":1728493032564}}},"testing":{"testing":{"currentVault":{"count":2,"lastUpdated":1728409374276}}},"Learning":{"Learning":{"currentVault":{"count":4,"lastUpdated":1728917094451}}},"having":{"having":{"currentVault":{"count":2,"lastUpdated":1728488285022}}},"Convolutional Neural Network":{"Convolutional Neural Network":{"internalLink":{"count":5,"lastUpdated":1728591611684}}},"layers":{"layers":{"currentVault":{"count":4,"lastUpdated":1728193897367}}},"dimensions":{"dimensions":{"currentVault":{"count":6,"lastUpdated":1728665407137}}},"computation":{"computation":{"currentVault":{"count":3,"lastUpdated":1728478822020}}},"performed":{"performed":{"currentVault":{"count":3,"lastUpdated":1728246030038}}},"robust":{"robust":{"currentVault":{"count":2,"lastUpdated":1728579520282}}},"variations":{"variations":{"currentVault":{"count":2,"lastUpdated":1729272613320}}},"input":{"input":{"currentVault":{"count":2,"lastUpdated":1728487996125}}},"Pooling Layer":{"Pooling Layer":{"internalLink":{"count":9,"lastUpdated":1728589331978}}},"maximum":{"maximum":{"currentVault":{"count":10,"lastUpdated":1728919186880}}},"achieved":{"achieved":{"currentVault":{"count":2,"lastUpdated":1728477865686}}},"import":{"import":{"currentVault":{"count":1,"lastUpdated":1728478794634}}},"reduced":{"reduced":{"currentVault":{"count":3,"lastUpdated":1728408910485}}},"equivalent":{"equivalent":{"currentVault":{"count":2,"lastUpdated":1728637692632}}},"following":{"following":{"currentVault":{"count":5,"lastUpdated":1728493170008}}},"higher":{"higher":{"currentVault":{"count":2,"lastUpdated":1728148480423}}},"represents":{"represents":{"currentVault":{"count":5,"lastUpdated":1728918158569}}},"convolutional":{"convolutional":{"currentFile":{"count":2,"lastUpdated":1728408849123}}},"extract":{"extract":{"currentVault":{"count":2,"lastUpdated":1728408874119}}},"classification":{"classification":{"currentVault":{"count":9,"lastUpdated":1728638288766}}},"regression":{"regression":{"currentVault":{"count":8,"lastUpdated":1728574994810}}},"Gradient":{"Gradient":{"currentVault":{"count":13,"lastUpdated":1728478636339}}},"Descent":{"Descent":{"currentVault":{"count":9,"lastUpdated":1728478640148}}},"Machine":{"Machine":{"currentVault":{"count":2,"lastUpdated":1728917091882}}},"computational":{"computational":{"currentVault":{"count":5,"lastUpdated":1728493046661}}},"Machine Learning":{"Machine Learning":{"internalLink":{"count":10,"lastUpdated":1728637012252}}},"optimization":{"optimization":{"currentVault":{"count":3,"lastUpdated":1728409228716}}},"parameters":{"parameters":{"currentVault":{"count":5,"lastUpdated":1728409920805}}},"Repeat":{"Repeat":{"currentVault":{"count":3,"lastUpdated":1728494621820}}},"iterations":{"iterations":{"currentFile":{"count":6,"lastUpdated":1728477909237},"currentVault":{"count":1,"lastUpdated":1728919205350}}},"Compute":{"Compute":{"currentVault":{"count":2,"lastUpdated":1728409739022}}},"gradient":{"gradient":{"currentVault":{"count":19,"lastUpdated":1728479166915}}},"difference":{"difference":{"currentVault":{"count":5,"lastUpdated":1728917869558}}},"reached":{"reached":{"currentVault":{"count":3,"lastUpdated":1728919212706}}},"Formula":{"Formula":{"currentVault":{"count":3,"lastUpdated":1728813125176}}},"depend":{"depend":{"currentVault":{"count":1,"lastUpdated":1728575293200}}},"analysis":{"analysis":{"currentVault":{"count":1,"lastUpdated":1728917423861}}},"considering":{"considering":{"currentVault":{"count":2,"lastUpdated":1728578952823}}},"Outlier":{"Outlier":{"internalLink":{"count":6,"lastUpdated":1728586229156}}},"Traversal":{"Traversal":{"currentFile":{"count":7,"lastUpdated":1729272498874}}},"Disadvantage":{"Disadvantage":{"currentVault":{"count":3,"lastUpdated":1728641338391}}},"Terminologies":{"Terminologies":{"currentVault":{"count":2,"lastUpdated":1728586061857}}},"properties":{"properties":{"currentVault":{"count":2,"lastUpdated":1728203401461}}},"result":{"result":{"currentVault":{"count":2,"lastUpdated":1728493883206}}},"arduino":{"arduino":{"currentVault":{"count":3,"lastUpdated":1727958051807}}},"Webcam":{"Webcam":{"currentVault":{"count":1,"lastUpdated":1727958022819}}},"evaluate":{"evaluate":{"currentVault":{"count":2,"lastUpdated":1728493060614}}},"non-zero":{"non-zero":{"currentVault":{"count":4,"lastUpdated":1728494547049}}},"order":{"order":{"currentVault":{"count":2,"lastUpdated":1728148471421}}},"minor":{"minor":{"currentFile":{"count":1,"lastUpdated":1728148466828}}},"Symbolically":{"Symbolically":{"currentVault":{"count":1,"lastUpdated":1728148536828}}},"definations":{"definations":{"currentVault":{"count":1,"lastUpdated":1728148575816}}},"Non-Singular Matrix":{"Non-Singular Matrix":{"internalLink":{"count":2,"lastUpdated":1728152225607}}},"Charge":{"Charge":{"internalLink":{"count":1,"lastUpdated":1728149411929}}},"Electric Charge":{"Electric Charge":{"internalLink":{"count":4,"lastUpdated":1728217643930}}},"Drift Velocity":{"Drift Velocity":{"internalLink":{"count":1,"lastUpdated":1728149575236}}},"Average Relaxation time":{"Average Relaxation time":{"internalLink":{"count":1,"lastUpdated":1728149676221}}},"Electric Field":{"Electric Field":{"internalLink":{"count":1,"lastUpdated":1728150587748}}},"Electric Current":{"Electric Current":{"internalLink":{"count":4,"lastUpdated":1728217566384}}},"Singular Matrix":{"Singular Matrix":{"internalLink":{"count":1,"lastUpdated":1728152305900}}},"Advantage":{"Advantage":{"currentVault":{"count":2,"lastUpdated":1728246208394}}},"Recursion":{"Recursion":{"internalLink":{"count":1,"lastUpdated":1728154662714}}},"Tail Recursion":{"Tail Recursion":{"internalLink":{"count":1,"lastUpdated":1728154672429}}},"Linked List Implementation of Queue":{"Linked List Implementation of Queue":{"internalLink":{"count":1,"lastUpdated":1728155083551}}},"Subshells":{"Subshells":{"internalLink":{"count":3,"lastUpdated":1728155365345}}},"Energy.md":{"Energy.md":{"currentVault":{"count":2,"lastUpdated":1728155346345}}},"Energy":{"Energy":{"currentVault":{"count":1,"lastUpdated":1728155353042}}},"Subshell":{"Subshell":{"currentVault":{"count":1,"lastUpdated":1728155373453}}},"Solute":{"Solute":{"internalLink":{"count":2,"lastUpdated":1728217945992}}},"Heat Capacity":{"Heat Capacity":{"internalLink":{"count":1,"lastUpdated":1728164734599}}},"Mole":{"Mole":{"internalLink":{"count":2,"lastUpdated":1728165378937}}},"Solvent":{"Solvent":{"internalLink":{"count":2,"lastUpdated":1728217953615}}},"Latent Heat":{"Latent Heat":{"internalLink":{"count":2,"lastUpdated":1728165014115}}},"Reduction":{"Reduction":{"internalLink":{"count":1,"lastUpdated":1728165062090}}},"Osmotic Pressure":{"Osmotic Pressure":{"internalLink":{"count":1,"lastUpdated":1728165450266}}},"Bipolar Junction Transister":{"Bipolar Junction Transister":{"internalLink":{"count":1,"lastUpdated":1728165516604}}},"Neural Network":{"Neural Network":{"internalLink":{"count":9,"lastUpdated":1730527882097}}},"Oxidation":{"Oxidation":{"internalLink":{"count":1,"lastUpdated":1728165649928}}},"Enthalpy of Formation":{"Enthalpy of Formation":{"internalLink":{"count":2,"lastUpdated":1728165864010}}},"Redox Reaction":{"Redox Reaction":{"internalLink":{"count":3,"lastUpdated":1728495199681}}},"Transformations":{"Transformations":{"currentVault":{"count":2,"lastUpdated":1728197288730}}},"neural":{"neural":{"currentVault":{"count":1,"lastUpdated":1728193611832}}},"networks":{"networks":{"currentVault":{"count":3,"lastUpdated":1728492232277}}},"linear":{"linear":{"currentVault":{"count":4,"lastUpdated":1728479021811}}},"mapping":{"mapping":{"currentVault":{"count":1,"lastUpdated":1728193636806}}},"weight":{"weight":{"currentVault":{"count":3,"lastUpdated":1728488290168}}},"described":{"described":{"currentVault":{"count":1,"lastUpdated":1728193662024}}},"equation":{"equation":{"currentVault":{"count":3,"lastUpdated":1728411816333}}},"learned":{"learned":{"currentVault":{"count":1,"lastUpdated":1728193851661}}},"during":{"during":{"currentVault":{"count":1,"lastUpdated":1728193853857}}},"vector":{"vector":{"currentFile":{"count":1,"lastUpdated":1728193875226}}},"Matrix Multiplication":{"Matrix Multiplication":{"internalLink":{"count":2,"lastUpdated":1728198732837}}},"vector.md":{"vector.md":{"currentVault":{"count":1,"lastUpdated":1728198834992}}},"satisfies":{"satisfies":{"currentVault":{"count":1,"lastUpdated":1728203395999}}},"linearity":{"linearity":{"currentVault":{"count":1,"lastUpdated":1728203447745}}},"Funtion":{"Funtion":{"currentVault":{"count":1,"lastUpdated":1728211576592}}},"sigmoid":{"sigmoid":{"currentVault":{"count":3,"lastUpdated":1728212201274}}},"Activation Functions":{"Activation Functions":{"internalLink":{"count":6,"lastUpdated":1728589306506}}},"particularly":{"particularly":{"currentVault":{"count":2,"lastUpdated":1728211774665}}},"mathematically":{"mathematically":{"currentVault":{"count":1,"lastUpdated":1728211807585}}},"Where":{"Where":{"currentVault":{"count":1,"lastUpdated":1728211946470}}},"\\sigma":{"\\sigma":{"currentFile":{"count":1,"lastUpdated":1728211996804}}},"negative":{"negative":{"currentVault":{"count":1,"lastUpdated":1728212057113}}},"positive":{"positive":{"currentVault":{"count":1,"lastUpdated":1728212060653}}},"infinity":{"infinity":{"currentVault":{"count":1,"lastUpdated":1728212062675}}},"approximately":{"approximately":{"currentVault":{"count":1,"lastUpdated":1728212077353}}},"real-valued":{"real-valued":{"currentVault":{"count":1,"lastUpdated":1728212210250}}},"Lorentz Force":{"Lorentz Force":{"internalLink":{"count":1,"lastUpdated":1728217631059}}},"Homogeneous Mixture":{"Homogeneous Mixture":{"internalLink":{"count":1,"lastUpdated":1728217935268}}},"Circular Linked List":{"Circular Linked List":{"internalLink":{"count":1,"lastUpdated":1728240640587}}},"Feature":{"Feature":{"currentVault":{"count":1,"lastUpdated":1728245963958}}},"Transfromers Attention Mechanism":{"Attention Mechanism":{"internalLink":{"count":1,"lastUpdated":1728245971543}}},"teaching":{"teaching":{"currentVault":{"count":1,"lastUpdated":1728245974164}}},"independent":{"independent":{"currentVault":{"count":1,"lastUpdated":1728246013791}}},"fixed":{"fixed":{"currentVault":{"count":1,"lastUpdated":1728246025911}}},"pre-processing":{"pre-processing":{"currentVault":{"count":1,"lastUpdated":1728246036192}}},"magnitude":{"magnitude":{"currentVault":{"count":1,"lastUpdated":1728246049644}}},"smaller":{"smaller":{"currentVault":{"count":1,"lastUpdated":1728246149986}}},"Scaling":{"Scaling":{"currentFile":{"count":2,"lastUpdated":1728246257299}}},"purposes":{"purposes":{"currentVault":{"count":1,"lastUpdated":1728246250531}}},"significant":{"significant":{"currentVault":{"count":1,"lastUpdated":1728246316103}}},"technique":{"technique":{"currentFile":{"count":1,"lastUpdated":1728246345941}}},"techniques":{"techniques":{"currentFile":{"count":1,"lastUpdated":1728246364170},"currentVault":{"count":1,"lastUpdated":1728409231715}}},"excessive":{"excessive":{"currentVault":{"count":1,"lastUpdated":1728246399064}}},"outcomes":{"outcomes":{"currentVault":{"count":1,"lastUpdated":1728246406122}}},"avoid":{"avoid":{"currentVault":{"count":1,"lastUpdated":1728246411240}}},"contributes":{"contributes":{"currentVault":{"count":1,"lastUpdated":1728246423329}}},"scaling":{"scaling":{"currentFile":{"count":1,"lastUpdated":1728246432585}}},"improvements":{"improvements":{"currentVault":{"count":1,"lastUpdated":1728246452979}}},"including":{"including":{"currentVault":{"count":1,"lastUpdated":1728246478473}}},"distance":{"distance":{"currentVault":{"count":3,"lastUpdated":1728813704639}}},"support":{"support":{"currentVault":{"count":1,"lastUpdated":1728246546748}}},"machines":{"machines":{"currentVault":{"count":1,"lastUpdated":1728246556888}}},"absolute":{"absolute":{"currentVault":{"count":1,"lastUpdated":1728246939293}}},"Challenges":{"Challenges":{"currentVault":{"count":1,"lastUpdated":1728310215391}}},"Technologies":{"Technologies":{"currentVault":{"count":1,"lastUpdated":1728310231077}}},"Framework":{"Framework":{"currentVault":{"count":1,"lastUpdated":1728310287199}}},"Architecture":{"Architecture":{"currentVault":{"count":1,"lastUpdated":1728408577343}}},"layers. ":{"layers. ":{"currentVault":{"count":1,"lastUpdated":1728408589976}}},"fully":{"fully":{"currentFile":{"count":1,"lastUpdated":1728408921758}}},"filters":{"filters":{"currentFile":{"count":1,"lastUpdated":1728408958282}}},"backpropagation":{"backpropagation":{"currentVault":{"count":1,"lastUpdated":1728408977758}}},"descent":{"descent":{"currentVault":{"count":7,"lastUpdated":1728479031874}}},"iterative":{"iterative":{"currentVault":{"count":1,"lastUpdated":1728409184779}}},"tries":{"tries":{"currentVault":{"count":1,"lastUpdated":1728409198641}}},"objective":{"objective":{"currentVault":{"count":3,"lastUpdated":1728917792657}}},"minimize":{"minimize":{"currentVault":{"count":6,"lastUpdated":1728638345727}}},"highest":{"highest":{"currentVault":{"count":1,"lastUpdated":1728409354590}}},"increase":{"increase":{"currentVault":{"count":2,"lastUpdated":1728409536156}}},"Gradient Descent":{"Gradient Descent":{"internalLink":{"count":2,"lastUpdated":1728479163659}}},"Vector":{"Vector":{"internalLink":{"count":1,"lastUpdated":1728409512611}}},"opposite":{"opposite":{"currentVault":{"count":2,"lastUpdated":1728409935348}}},"gradually":{"gradually":{"currentVault":{"count":1,"lastUpdated":1728409624904}}},"eventually":{"eventually":{"currentVault":{"count":1,"lastUpdated":1728409647204}}},"minimum":{"minimum":{"currentFile":{"count":6,"lastUpdated":1728478541564}}},"REQUIRED":{"REQUIRED":{"currentVault":{"count":1,"lastUpdated":1728409677499}}},"Required":{"Required":{"currentFile":{"count":1,"lastUpdated":1728409685501}}},"partial":{"partial":{"currentVault":{"count":2,"lastUpdated":1728409871458}}},"differentiable":{"differentiable":{"currentVault":{"count":2,"lastUpdated":1728409875436}}},"differentiation":{"differentiation":{"currentVault":{"count":1,"lastUpdated":1728409879064}}},"hyperparameter":{"hyperparameter":{"currentVault":{"count":1,"lastUpdated":1728409980872}}},"alpha":{"alpha":{"currentVault":{"count":1,"lastUpdated":1728409990605}}},"iteratively":{"iteratively":{"currentVault":{"count":4,"lastUpdated":1728919195324}}},"programming":{"programming":{"currentVault":{"count":1,"lastUpdated":1728410374631}}},"language":{"language":{"currentVault":{"count":1,"lastUpdated":1728410378983}}},"understand":{"understand":{"currentVault":{"count":1,"lastUpdated":1728410436108}}},"prediction":{"prediction":{"currentFile":{"count":4,"lastUpdated":1728479088179}}},"updated":{"updated":{"currentVault":{"count":1,"lastUpdated":1728410664250}}},"Perpendicular%20Axis%20Theorem.md":{"Perpendicular%20Axis%20Theorem.md":{"currentVault":{"count":1,"lastUpdated":1728410792112}}},"predicted":{"predicted":{"currentFile":{"count":3,"lastUpdated":1728479044528},"currentVault":{"count":1,"lastUpdated":1728637597421}}},"target":{"target":{"currentFile":{"count":1,"lastUpdated":1728410808093}}},"separate":{"separate":{"currentVault":{"count":1,"lastUpdated":1728410851856}}},"Mathematics":{"Mathematics":{"currentVault":{"count":2,"lastUpdated":1728411115748}}},"Behind":{"Behind":{"currentVault":{"count":1,"lastUpdated":1728411105771}}},"Regression":{"Regression":{"currentVault":{"count":3,"lastUpdated":1728585936156},"internalLink":{"count":1,"lastUpdated":1728585939674}}},"based":{"based":{"currentVault":{"count":1,"lastUpdated":1728411352157}}},"While":{"While":{"currentFile":{"count":1,"lastUpdated":1728411379469}}},"Mean Squared Error":{"Mean Squared Error":{"internalLink":{"count":2,"lastUpdated":1728641326931}}},"Initially":{"Initially":{"currentVault":{"count":1,"lastUpdated":1728411609317}}},"randomly":{"randomly":{"currentFile":{"count":1,"lastUpdated":1728411627950},"currentVault":{"count":3,"lastUpdated":1728918816052}}},"reaches":{"reaches":{"currentVault":{"count":1,"lastUpdated":1728411694913}}},"downward":{"downward":{"currentVault":{"count":2,"lastUpdated":1728477840211}}},"ta7IbBFA7IBJav1KsfaEadn5iUWARgQbm42ILdIdqH2MweHR8amZuYWocgcZhwNpZKAPJ4vN76ABihHw+EqMGCC0EHgh2zB0KObBOAHUSOpuHxwJtMXsDjiTkiURI0SQMc8sQcAErCZSSDjhXJoK78MlMikZADyIOwahg3CuSSS":{"ta7IbBFA7IBJav1KsfaEadn5iUWARgQbm42ILdIdqH2MweHR8amZuYWocgcZhwNpZKAPJ4vN76ABihHw+EqMGCC0EHgh2zB0KObBOAHUSOpuHxwJtMXsDjiTkiURI0SQMc8sQcAErCZSSDjhXJoK78MlMikZADyIOwahg3CuSSS":{"currentVault":{"count":1,"lastUpdated":1728477833031}}},"toward":{"toward":{"currentVault":{"count":1,"lastUpdated":1728477842506}}},"taking":{"taking":{"currentFile":{"count":1,"lastUpdated":1728477868991}}},"derivative":{"derivative":{"currentVault":{"count":1,"lastUpdated":1728477883051}}},"illustrated":{"illustrated":{"currentVault":{"count":1,"lastUpdated":1728477895336}}},"steepest":{"steepest":{"currentFile":{"count":1,"lastUpdated":1728477970726}}},"adjusting":{"adjusting":{"currentVault":{"count":1,"lastUpdated":1728477981378}}},"determined":{"determined":{"currentVault":{"count":1,"lastUpdated":1728478044230}}},"alogrithms":{"alogrithms":{"currentVault":{"count":1,"lastUpdated":1728478082186}}},"slope":{"slope":{"currentVault":{"count":2,"lastUpdated":1728478302779}}},"decrease":{"decrease":{"currentVault":{"count":1,"lastUpdated":1728478214739}}},"Hence":{"Hence":{"currentFile":{"count":1,"lastUpdated":1728478358715}}},"increases":{"increases":{"currentVault":{"count":1,"lastUpdated":1728478381316}}},"Choosing":{"Choosing":{"currentVault":{"count":1,"lastUpdated":1728478450189}}},"choice":{"choice":{"currentVault":{"count":1,"lastUpdated":1728478457991}}},"correct":{"correct":{"currentVault":{"count":2,"lastUpdated":1728637837791}}},"ensures":{"ensures":{"currentVault":{"count":1,"lastUpdated":1728478474562}}},"converges":{"converges":{"currentVault":{"count":1,"lastUpdated":1728478486755}}},"necessary":{"necessary":{"currentVault":{"count":1,"lastUpdated":1728478800132}}},"libraries":{"libraries":{"currentVault":{"count":1,"lastUpdated":1728478808235}}},"mathematical":{"mathematical":{"currentVault":{"count":2,"lastUpdated":1728478874220}}},"plotting":{"plotting":{"currentVault":{"count":1,"lastUpdated":1728478829421}}},"matplotlib":{"matplotlib":{"currentVault":{"count":1,"lastUpdated":1728478884211}}},"coefficient":{"coefficient":{"currentVault":{"count":1,"lastUpdated":1728478999099}}},"method":{"method":{"currentFile":{"count":1,"lastUpdated":1728479082410}}},"coefficients":{"coefficients":{"currentFile":{"count":1,"lastUpdated":1728479110562}}},"calculating":{"calculating":{"currentVault":{"count":1,"lastUpdated":1728479126756}}},"Stochastic Gradient Descent":{"Stochastic Gradient Descent":{"internalLink":{"count":1,"lastUpdated":1728485878809}}},"Components":{"Components":{"internalLink":{"count":1,"lastUpdated":1728486555414}}},"Sigmoid Activation Function":{"Sigmoid Activation Function":{"internalLink":{"count":6,"lastUpdated":1728638741736}}},"Processing":{"Processing":{"currentFile":{"count":1,"lastUpdated":1728487957128}}},"neuron":{"neuron":{"currentFile":{"count":4,"lastUpdated":1728488393493}}},"receives":{"receives":{"currentVault":{"count":1,"lastUpdated":1728487993759}}},"previews":{"previews":{"currentVault":{"count":1,"lastUpdated":1728488076228}}},"connection":{"connection":{"currentFile":{"count":1,"lastUpdated":1728488278128}}},"incorporating":{"incorporating":{"currentVault":{"count":1,"lastUpdated":1728488300490}}},"weighted":{"weighted":{"currentFile":{"count":2,"lastUpdated":1728492161688}}},"processed":{"processed":{"currentVault":{"count":1,"lastUpdated":1728492169598}}},"non-linear":{"non-linear":{"currentVault":{"count":2,"lastUpdated":1729696589993}}},"introduced":{"introduced":{"currentVault":{"count":1,"lastUpdated":1728492222010}}},"non-linearity":{"non-linearity":{"currentFile":{"count":1,"lastUpdated":1728492226036}}},"enabling":{"enabling":{"currentFile":{"count":1,"lastUpdated":1728492229335},"currentVault":{"count":1,"lastUpdated":1729702262709}}},"functions":{"functions":{"currentFile":{"count":1,"lastUpdated":1728492243136}}},"minors":{"minors":{"currentVault":{"count":1,"lastUpdated":1728492881760}}},"Rank Of A Matrix":{"Rank Of A Matrix":{"internalLink":{"count":1,"lastUpdated":1728492952723}}},"several":{"several":{"currentVault":{"count":2,"lastUpdated":1728586181048}}},"determinants":{"determinants":{"currentVault":{"count":1,"lastUpdated":1728493069591}}},"series":{"series":{"currentVault":{"count":1,"lastUpdated":1728493142216}}},"normal":{"normal":{"currentFile":{"count":1,"lastUpdated":1728493183477}}},"Normal":{"Normal":{"currentFile":{"count":1,"lastUpdated":1728494245289}}},"Method":{"Method":{"currentFile":{"count":1,"lastUpdated":1728494264321}}},"Interchange":{"Interchange":{"currentVault":{"count":1,"lastUpdated":1728494438606}}},"obtain":{"obtain":{"currentFile":{"count":1,"lastUpdated":1728494451253}}},"Obtain":{"Obtain":{"currentFile":{"count":1,"lastUpdated":1728494561356}}},"starting":{"starting":{"currentVault":{"count":2,"lastUpdated":1728918864718}}},"Continue":{"Continue":{"currentVault":{"count":1,"lastUpdated":1728494662045}}},"remaining":{"remaining":{"currentVault":{"count":1,"lastUpdated":1728494750892}}},"Decomposition Reaction":{"Decomposition Reaction":{"internalLink":{"count":1,"lastUpdated":1728495213827}}},"combination":{"combination":{"currentVault":{"count":1,"lastUpdated":1728497071265}}},"Gears":{"Gears":{"internalLink":{"count":1,"lastUpdated":1728497074520}}},"Configuration":{"Configuration":{"currentVault":{"count":1,"lastUpdated":1728573911063}}},"transition":{"transition":{"currentVault":{"count":1,"lastUpdated":1728573928193}}},"Connected":{"Connected":{"currentFile":{"count":1,"lastUpdated":1728574066456}}},"neurons":{"neurons":{"currentFile":{"count":1,"lastUpdated":1728574074123}}},"configurable":{"configurable":{"currentVault":{"count":1,"lastUpdated":1728574117400}}},"configuration":{"configuration":{"currentFile":{"count":1,"lastUpdated":1728574120782}}},"biases":{"biases":{"currentFile":{"count":1,"lastUpdated":1728574146350}}},"transforming":{"transforming":{"currentVault":{"count":1,"lastUpdated":1728574168930}}},"combining":{"combining":{"currentVault":{"count":1,"lastUpdated":1728574173881}}},"Advantages":{"Advantages":{"currentVault":{"count":4,"lastUpdated":1728641305869}}},"Limitations":{"Limitations":{"currentVault":{"count":2,"lastUpdated":1728919358808}}},"Support":{"Support":{"currentVault":{"count":1,"lastUpdated":1728574954345}}},"Supervised Machine Learning":{"Supervised Machine Learning":{"internalLink":{"count":2,"lastUpdated":1728585797140}}},"problems":{"problems":{"currentVault":{"count":1,"lastUpdated":1728575020105}}},"suited":{"suited":{"currentVault":{"count":1,"lastUpdated":1728575032203}}},"N-dimensional":{"N-dimensional":{"currentVault":{"count":1,"lastUpdated":1728575136227}}},"possible":{"possible":{"currentVault":{"count":2,"lastUpdated":1728638251438}}},"hyperplane":{"hyperplane":{"currentFile":{"count":6,"lastUpdated":1728579503989}}},"become":{"become":{"currentVault":{"count":1,"lastUpdated":1728575349255}}},"difficult":{"difficult":{"currentVault":{"count":1,"lastUpdated":1728575367402}}},"imagine":{"imagine":{"currentVault":{"count":1,"lastUpdated":1728575375469}}},"exceeds":{"exceeds":{"currentVault":{"count":1,"lastUpdated":1728575389952}}},"segregated":{"segregated":{"currentVault":{"count":1,"lastUpdated":1728578993833}}},"reasonable":{"reasonable":{"currentVault":{"count":1,"lastUpdated":1728579129643}}},"classes":{"classes":{"currentFile":{"count":1,"lastUpdated":1728579169918}}},"boundary":{"boundary":{"currentVault":{"count":2,"lastUpdated":1728579451396}}},"classify":{"classify":{"currentVault":{"count":2,"lastUpdated":1728918178403}}},"maximized":{"maximized":{"currentFile":{"count":2,"lastUpdated":1728579633110}}},"along":{"along":{"currentVault":{"count":1,"lastUpdated":1728579647539}}},"margin":{"margin":{"currentFile":{"count":1,"lastUpdated":1728579663402}}},"margins":{"margins":{"currentFile":{"count":1,"lastUpdated":1728579725231}}},"proportional":{"proportional":{"currentVault":{"count":1,"lastUpdated":1728580001472}}},"violations":{"violations":{"currentFile":{"count":1,"lastUpdated":1728580007798}}},"Terminology":{"Terminology":{"currentVault":{"count":2,"lastUpdated":1728586059460}}},"ReLU Activation Function":{"ReLU Activation Function":{"internalLink":{"count":2,"lastUpdated":1728589391562}}},"TYPES":{"TYPES":{"currentVault":{"count":1,"lastUpdated":1728586147257}}},"Working":{"Working":{"currentVault":{"count":2,"lastUpdated":1728918077485}}},"Mathematical":{"Mathematical":{"currentVault":{"count":2,"lastUpdated":1728638392261}}},"Overview":{"Overview":{"currentVault":{"count":1,"lastUpdated":1728589063829}}},"Fully Connected Layer":{"Fully Connected Layer":{"internalLink":{"count":2,"lastUpdated":1728591102988}}},"Softmax Layer":{"Softmax Layer":{"internalLink":{"count":1,"lastUpdated":1728589850922}}},"Applying":{"Applying":{"currentVault":{"count":1,"lastUpdated":1728589878130}}},"Convolution Layer":{"Convolutional Neural Network":{"internalLink":{"count":1,"lastUpdated":1728591346318}}},"probability":{"probability":{"currentVault":{"count":5,"lastUpdated":1728638301890}}},"belonging":{"belonging":{"currentVault":{"count":1,"lastUpdated":1728637107787}}},"entropy":{"entropy":{"currentVault":{"count":1,"lastUpdated":1728637562346}}},"measure":{"measure":{"currentVault":{"count":2,"lastUpdated":1728638278953}}},"Cross":{"Cross":{"currentFile":{"count":1,"lastUpdated":1728637638263}}},"likelihood":{"likelihood":{"currentVault":{"count":3,"lastUpdated":1728637825011}}},"estimate":{"estimate":{"currentVault":{"count":1,"lastUpdated":1728637656207}}},"estimation":{"estimation":{"currentVault":{"count":1,"lastUpdated":1728637657758}}},"applied":{"applied":{"currentVault":{"count":2,"lastUpdated":1729697329397}}},"Maximisation":{"Maximisation":{"currentVault":{"count":1,"lastUpdated":1728637673635}}},"minimizing":{"minimizing":{"currentVault":{"count":1,"lastUpdated":1728637699544}}},"log-likelihood":{"log-likelihood":{"currentVault":{"count":1,"lastUpdated":1728637705717}}},"expressed":{"expressed":{"currentVault":{"count":1,"lastUpdated":1728637830862}}},"probabilities":{"probabilities":{"currentVault":{"count":1,"lastUpdated":1728637985305}}},"Cross Entropy Loss":{"Cross Entropy Loss":{"internalLink":{"count":2,"lastUpdated":1728643079780}}},"funtion":{"funtion":{"currentVault":{"count":1,"lastUpdated":1728638210547}}},"performance":{"performance":{"currentVault":{"count":1,"lastUpdated":1728638283784}}},"improve":{"improve":{"currentVault":{"count":1,"lastUpdated":1728638371042}}},"predictive":{"predictive":{"currentVault":{"count":1,"lastUpdated":1728638374610}}},"accuracy":{"accuracy":{"currentVault":{"count":1,"lastUpdated":1728638377709}}},"Mathematically":{"Mathematically":{"currentVault":{"count":1,"lastUpdated":1728638394882}}},"Unsteady":{"Unsteady":{"currentVault":{"count":1,"lastUpdated":1728638971219}}},"implement":{"implement":{"currentVault":{"count":1,"lastUpdated":1728641217613}}},"manual":{"manual":{"currentFile":{"count":1,"lastUpdated":1728641226116}}},"PyTorch":{"PyTorch":{"currentFile":{"count":1,"lastUpdated":1728641237500}}},"results":{"results":{"currentVault":{"count":1,"lastUpdated":1728641243182}}},"Diverge":{"Diverge":{"currentVault":{"count":1,"lastUpdated":1728643092062}}},"dimensionality":{"dimensionality":{"currentVault":{"count":1,"lastUpdated":1728665403538}}},"kernel":{"kernel":{"currentFile":{"count":1,"lastUpdated":1728665423460}}},"Padding":{"Padding":{"currentFile":{"count":1,"lastUpdated":1728665451705}}},"Distance":{"Distance":{"currentFile":{"count":2,"lastUpdated":1728813470040}}},"Coordinate":{"Coordinate":{"currentVault":{"count":4,"lastUpdated":1728813759146}}},"Euclidean":{"Euclidean":{"currentFile":{"count":2,"lastUpdated":1728813702828}}},"formula":{"formula":{"currentFile":{"count":2,"lastUpdated":1728813581946}}},"n-dimensional":{"n-dimensional":{"currentFile":{"count":1,"lastUpdated":1728813572870}}},"First":{"First":{"currentFile":{"count":2,"lastUpdated":1728918420502}}},"Second":{"Second":{"currentFile":{"count":1,"lastUpdated":1728813761651}}},"Point":{"Point":{"currentFile":{"count":1,"lastUpdated":1728813763038}}},"References":{"References":{"currentVault":{"count":1,"lastUpdated":1728813828861}}},"groups":{"groups":{"currentVault":{"count":4,"lastUpdated":1728918274174}}},"assigning":{"assigning":{"currentVault":{"count":3,"lastUpdated":1728917334327}}},"clusters":{"clusters":{"currentFile":{"count":8,"lastUpdated":1728918778628}}},"centroid":{"centroid":{"currentVault":{"count":6,"lastUpdated":1728918885220}}},"space":{"space":{"currentVault":{"count":1,"lastUpdated":1728917281280}}},"Euclidean Distance":{"Euclidean Distance":{"internalLink":{"count":2,"lastUpdated":1728918921659}}},"assigned":{"assigned":{"currentVault":{"count":1,"lastUpdated":1728917397936}}},"cluster":{"cluster":{"currentFile":{"count":1,"lastUpdated":1728917570350}}},"Objective":{"Objective":{"currentVault":{"count":1,"lastUpdated":1728917739055}}},"clustering":{"clustering":{"currentVault":{"count":1,"lastUpdated":1728917803216}}},"divide":{"divide":{"currentVault":{"count":1,"lastUpdated":1728917810256}}},"population":{"population":{"currentVault":{"count":1,"lastUpdated":1728917814108}}},"comparable":{"comparable":{"currentVault":{"count":1,"lastUpdated":1728917864658}}},"essentially":{"essentially":{"currentVault":{"count":1,"lastUpdated":1728917900280}}},"certain":{"certain":{"currentVault":{"count":1,"lastUpdated":1728918220915}}},"categorized":{"categorized":{"currentVault":{"count":1,"lastUpdated":1728918266739}}},"Select":{"Select":{"currentFile":{"count":1,"lastUpdated":1728918824306}}},"initial":{"initial":{"currentVault":{"count":1,"lastUpdated":1728918841913}}},"centroids":{"centroids":{"currentFile":{"count":7,"lastUpdated":1728919259540}}},"minimal":{"minimal":{"currentVault":{"count":1,"lastUpdated":1728919177221}}},"sensitive":{"sensitive":{"currentVault":{"count":1,"lastUpdated":1728919370384}}},"character":{"character":{"currentVault":{"count":1,"lastUpdated":1728963457299}}},"Reverse":{"Reverse":{"currentVault":{"count":1,"lastUpdated":1728963472261}}},"subtree":{"subtree":{"currentFile":{"count":1,"lastUpdated":1729272452642}}},"Users":{"Users":{"currentVault":{"count":1,"lastUpdated":1729272565203}}},"Inorder":{"Inorder":{"currentFile":{"count":1,"lastUpdated":1729272629410}}},"expression":{"expression":{"currentVault":{"count":2,"lastUpdated":1729272695632}}},"classical":{"classical":{"currentVault":{"count":1,"lastUpdated":1729396678732}}},"affected":{"affected":{"currentVault":{"count":1,"lastUpdated":1729697259973}}},"capability":{"capability":{"currentVault":{"count":1,"lastUpdated":1729700339628}}},"capabilities":{"capabilities":{"currentVault":{"count":1,"lastUpdated":1729700342062}}},"enhancing":{"enhancing":{"currentVault":{"count":1,"lastUpdated":1729700347998}}},"Resistor":{"Resistor":{"currentVault":{"count":1,"lastUpdated":1729700455160}}},"inductor":{"inductor":{"currentVault":{"count":1,"lastUpdated":1729700459549}}},"capacitor":{"capacitor":{"currentVault":{"count":1,"lastUpdated":1729700463009}}},"Applications":{"Applications":{"currentVault":{"count":1,"lastUpdated":1729702509477}}},"applicable":{"applicable":{"currentVault":{"count":1,"lastUpdated":1729702614998}}},"Explanation":{"Explanation":{"currentVault":{"count":1,"lastUpdated":1730045094489}}}}